Variables=x,y,u,v,Potential,Velocity,Velocity_B
Zone n=80,e=128,f=fepoint,et=triangle
0.500000	0.000000	0.558790	-0.000000	-0.330534	0.558790	0.558790
0.461940	0.191342	0.695349	-0.329682	-0.397825	0.769546	0.769546
0.353553	0.353553	1.025030	-0.466240	-0.589452	1.126085	1.126085
0.191342	0.461940	1.354713	-0.329683	-0.876242	1.394251	1.394251
-0.000000	0.500000	1.491271	-0.000000	-1.214536	1.491271	1.491271
-0.191342	0.461940	1.354713	0.329683	-1.552829	1.394251	1.394251
-0.353553	0.353553	1.025030	0.466240	-1.839619	1.126085	1.126085
-0.461940	0.191342	0.695349	0.329682	-2.031246	0.769546	0.769546
-0.500000	-0.000000	0.558790	-0.000000	-2.098537	0.558790	0.558790
-0.461940	-0.191342	0.695349	-0.329682	-2.031246	0.769546	0.769546
-0.353553	-0.353553	1.025030	-0.466240	-1.839619	1.126085	1.126085
-0.191342	-0.461940	1.354713	-0.329683	-1.552829	1.394251	1.394251
0.000000	-0.500000	1.491271	-0.000000	-1.214535	1.491271	1.491271
0.191342	-0.461940	1.354713	0.329683	-0.876242	1.394251	1.394251
0.353553	-0.353553	1.025030	0.466240	-0.589452	1.126085	1.126085
0.461940	-0.191342	0.695349	0.329681	-0.397825	0.769545	0.769545
0.884503	0.175939	0.867639	-0.055116	-0.137724	0.869388	0.000000
0.749846	0.501031	0.945584	-0.133061	-0.301658	0.954900	0.000000
0.501031	0.749846	1.055815	-0.133061	-0.604571	1.064167	0.000000
0.175939	0.884503	1.133760	-0.055116	-1.000344	1.135099	0.000000
-0.175939	0.884503	1.133761	0.055116	-1.428727	1.135099	0.000000
-0.501031	0.749846	1.055815	0.133061	-1.824500	1.064167	0.000000
-0.749846	0.501031	0.945584	0.133061	-2.127413	0.954900	0.000000
-0.884503	0.175939	0.867639	0.055116	-2.291347	0.869387	0.000000
-0.884503	-0.175939	0.867639	-0.055116	-2.291347	0.869387	0.000000
-0.749846	-0.501031	0.945584	-0.133061	-2.127413	0.954900	0.000000
-0.501031	-0.749846	1.055815	-0.133061	-1.824500	1.064167	0.000000
-0.175939	-0.884503	1.133760	-0.055116	-1.428727	1.135099	0.000000
0.175939	-0.884503	1.133761	0.055116	-1.000344	1.135099	0.000000
0.501031	-0.749846	1.055815	0.133061	-0.604571	1.064167	0.000000
0.749846	-0.501031	0.945584	0.133061	-0.301658	0.954900	0.000000
0.884503	-0.175938	0.867639	0.055116	-0.137724	0.869387	0.000000
2.201480	0.000000	0.979008	-0.000000	1.063141	0.979008	0.000000
2.033900	0.842468	0.985369	-0.015356	0.889761	0.985489	0.000000
1.556680	1.556680	1.000725	-0.021717	0.396024	1.000961	0.000000
0.842468	2.033900	1.016081	-0.015356	-0.342908	1.016198	0.000000
-0.000000	2.201480	1.022442	-0.000000	-1.214536	1.022442	0.000000
-0.842468	2.033900	1.016081	0.015356	-2.086163	1.016198	0.000000
-1.556680	1.556680	1.000725	0.021717	-2.825095	1.000961	0.000000
-2.033900	0.842468	0.985369	0.015356	-3.318833	0.985489	0.000000
-2.201480	-0.000000	0.979008	0.000000	-3.492213	0.979008	0.000000
-2.033900	-0.842468	0.985369	-0.015356	-3.318833	0.985489	0.000000
-1.556680	-1.556680	1.000725	-0.021717	-2.825095	1.000961	0.000000
-0.842468	-2.033900	1.016081	-0.015356	-2.086163	1.016198	0.000000
0.000000	-2.201480	1.022442	-0.000000	-1.214535	1.022442	0.000000
0.842468	-2.033900	1.016081	0.015356	-0.342908	1.016198	0.000000
1.556680	-1.556680	1.000725	0.021717	0.396024	1.000961	0.000000
2.033900	-0.842468	0.985369	0.015356	0.889761	0.985489	0.000000
6.281840	1.249540	0.998432	-0.000945	5.096131	0.998432	0.000000
5.325490	3.558380	0.999768	-0.002281	4.135393	0.999770	0.000000
3.558380	5.325490	1.001657	-0.002281	2.360173	1.001660	0.000000
1.249540	6.281840	1.002993	-0.000945	0.040738	1.002994	0.000000
-1.249540	6.281840	1.002993	0.000945	-2.469810	1.002994	0.000000
-3.558380	5.325490	1.001657	0.002281	-4.789245	1.001660	0.000000
-5.325490	3.558380	0.999768	0.002281	-6.564464	0.999770	0.000000
-6.281840	1.249540	0.998432	0.000945	-7.525202	0.998432	0.000000
-6.281840	-1.249540	0.998432	-0.000945	-7.525202	0.998432	0.000000
-5.325490	-3.558380	0.999768	-0.002281	-6.564464	0.999770	0.000000
-3.558380	-5.325490	1.001657	-0.002281	-4.789245	1.001660	0.000000
-1.249540	-6.281840	1.002993	-0.000945	-2.469810	1.002994	0.000000
1.249540	-6.281840	1.002993	0.000945	0.040738	1.002994	0.000000
3.558380	-5.325490	1.001657	0.002281	2.360173	1.001660	0.000000
5.325490	-3.558380	0.999768	0.002281	4.135393	0.999770	0.000000
6.281840	-1.249530	0.998432	0.000945	5.096131	0.998432	0.000000
20.000100	0.000000	0.999484	-0.000000	18.807664	0.999484	0.000000
18.477700	7.653700	0.999786	-0.000729	17.283582	0.999787	0.000000
14.142200	14.142200	1.000515	-0.001031	12.943291	1.000516	0.000000
7.653700	18.477700	1.001245	-0.000729	6.447622	1.001245	0.000000
-0.000001	20.000100	1.001547	0.000000	-1.214536	1.001547	0.000000
-7.653700	18.477700	1.001245	0.000729	-8.876693	1.001245	0.000000
-14.142200	14.142200	1.000515	0.001031	-15.372363	1.000516	0.000000
-18.477700	7.653690	0.999786	0.000729	-19.712653	0.999787	0.000000
-20.000100	-0.000002	0.999484	-0.000000	-21.236736	0.999484	0.000000
-18.477700	-7.653700	0.999786	-0.000729	-19.712653	0.999787	0.000000
-14.142200	-14.142200	1.000515	-0.001031	-15.372363	1.000516	0.000000
-7.653690	-18.477700	1.001245	-0.000729	-8.876683	1.001245	0.000000
0.000003	-20.000100	1.001547	0.000000	-1.214533	1.001547	0.000000
7.653700	-18.477700	1.001245	0.000729	6.447622	1.001245	0.000000
14.142200	-14.142200	1.000515	0.001031	12.943291	1.000516	0.000000
18.477700	-7.653690	0.999786	0.000729	17.283582	0.999787	0.000000
1	17	2
1	32	17
2	18	3
2	17	18
3	19	4
3	18	19
4	20	5
4	19	20
5	21	6
5	20	21
6	22	7
6	21	22
7	23	8
7	22	23
8	24	9
8	23	24
9	25	10
9	24	25
10	26	11
10	25	26
11	27	12
11	26	27
12	28	13
12	27	28
13	29	14
13	28	29
14	30	15
14	29	30
15	31	16
15	30	31
16	32	1
16	31	32
17	33	34
17	32	33
18	34	35
18	17	34
19	35	36
19	18	35
20	36	37
20	19	36
21	37	38
21	20	37
22	38	39
22	21	38
23	39	40
23	22	39
24	40	41
24	23	40
25	41	42
25	24	41
26	42	43
26	25	42
27	43	44
27	26	43
28	44	45
28	27	44
29	45	46
29	28	45
30	46	47
30	29	46
31	47	48
31	30	47
32	48	33
32	31	48
33	49	34
33	64	49
34	50	35
34	49	50
35	51	36
35	50	51
36	52	37
36	51	52
37	53	38
37	52	53
38	54	39
38	53	54
39	55	40
39	54	55
40	56	41
40	55	56
41	57	42
41	56	57
42	58	43
42	57	58
43	59	44
43	58	59
44	60	45
44	59	60
45	61	46
45	60	61
46	62	47
46	61	62
47	63	48
47	62	63
48	64	33
48	63	64
49	65	66
49	64	65
50	66	67
50	49	66
51	67	68
51	50	67
52	68	69
52	51	68
53	69	70
53	52	69
54	70	71
54	53	70
55	71	72
55	54	71
56	72	73
56	55	72
57	73	74
57	56	73
58	74	75
58	57	74
59	75	76
59	58	75
60	76	77
60	59	76
61	77	78
61	60	77
62	78	79
62	61	78
63	79	80
63	62	79
64	80	65
64	63	80
