Variables=x,y,u,v,Potential,Velocity
Zone n=80,e=128,f=fepoint,et=triangle
0.500000	0.000000	0.558790	-0.000000	0.549462	0.558790
0.461940	0.191342	0.695349	-0.329682	0.482172	0.769546
0.353553	0.353553	1.025030	-0.466240	0.290544	1.126085
0.191342	0.461940	1.354713	-0.329683	0.003754	1.394251
-0.000000	0.500000	1.491271	-0.000000	-0.334539	1.491271
-0.191342	0.461940	1.354713	0.329683	-0.672832	1.394251
-0.353553	0.353553	1.025030	0.466240	-0.959622	1.126085
-0.461940	0.191342	0.695349	0.329682	-1.151250	0.769546
-0.500000	-0.000000	0.558790	-0.000000	-1.218540	0.558790
-0.461940	-0.191342	0.695349	-0.329682	-1.151250	0.769546
-0.353553	-0.353553	1.025030	-0.466240	-0.959622	1.126085
-0.191342	-0.461940	1.354713	-0.329683	-0.672832	1.394251
0.000000	-0.500000	1.491271	-0.000000	-0.334539	1.491271
0.191342	-0.461940	1.354713	0.329683	0.003754	1.394251
0.353553	-0.353553	1.025030	0.466240	0.290544	1.126085
0.461940	-0.191342	0.695349	0.329681	0.482172	0.769545
0.884503	0.175939	0.867639	-0.055116	0.742272	0.869388
0.749846	0.501031	0.945584	-0.133061	0.578338	0.954900
0.501031	0.749846	1.055815	-0.133061	0.275426	1.064167
0.175939	0.884503	1.133760	-0.055116	-0.120347	1.135099
-0.175939	0.884503	1.133761	0.055116	-0.548731	1.135099
-0.501031	0.749846	1.055815	0.133061	-0.944504	1.064167
-0.749846	0.501031	0.945584	0.133061	-1.247416	0.954900
-0.884503	0.175939	0.867639	0.055116	-1.411350	0.869387
-0.884503	-0.175939	0.867639	-0.055116	-1.411350	0.869387
-0.749846	-0.501031	0.945584	-0.133061	-1.247416	0.954900
-0.501031	-0.749846	1.055815	-0.133061	-0.944504	1.064167
-0.175939	-0.884503	1.133760	-0.055116	-0.548731	1.135099
0.175939	-0.884503	1.133761	0.055116	-0.120347	1.135099
0.501031	-0.749846	1.055815	0.133061	0.275426	1.064167
0.749846	-0.501031	0.945584	0.133061	0.578338	0.954900
0.884503	-0.175938	0.867639	0.055116	0.742273	0.869387
2.201480	0.000000	0.979008	-0.000000	1.943138	0.979008
2.033900	0.842468	0.985369	-0.015356	1.769758	0.985489
1.556680	1.556680	1.000725	-0.021717	1.276020	1.000961
0.842468	2.033900	1.016081	-0.015356	0.537088	1.016198
-0.000000	2.201480	1.022442	-0.000000	-0.334539	1.022442
-0.842468	2.033900	1.016081	0.015356	-1.206166	1.016198
-1.556680	1.556680	1.000725	0.021717	-1.945098	1.000961
-2.033900	0.842468	0.985369	0.015356	-2.438836	0.985489
-2.201480	-0.000000	0.979008	0.000000	-2.612216	0.979008
-2.033900	-0.842468	0.985369	-0.015356	-2.438836	0.985489
-1.556680	-1.556680	1.000725	-0.021717	-1.945098	1.000961
-0.842468	-2.033900	1.016081	-0.015356	-1.206166	1.016198
0.000000	-2.201480	1.022442	-0.000000	-0.334539	1.022442
0.842468	-2.033900	1.016081	0.015356	0.537088	1.016198
1.556680	-1.556680	1.000725	0.021717	1.276020	1.000961
2.033900	-0.842468	0.985369	0.015356	1.769758	0.985489
6.281840	1.249540	0.998432	-0.000945	5.976128	0.998432
5.325490	3.558380	0.999768	-0.002281	5.015389	0.999770
3.558380	5.325490	1.001657	-0.002281	3.240170	1.001660
1.249540	6.281840	1.002993	-0.000945	0.920735	1.002994
-1.249540	6.281840	1.002993	0.000945	-1.589813	1.002994
-3.558380	5.325490	1.001657	0.002281	-3.909248	1.001660
-5.325490	3.558380	0.999768	0.002281	-5.684467	0.999770
-6.281840	1.249540	0.998432	0.000945	-6.645206	0.998432
-6.281840	-1.249540	0.998432	-0.000945	-6.645206	0.998432
-5.325490	-3.558380	0.999768	-0.002281	-5.684467	0.999770
-3.558380	-5.325490	1.001657	-0.002281	-3.909248	1.001660
-1.249540	-6.281840	1.002993	-0.000945	-1.589813	1.002994
1.249540	-6.281840	1.002993	0.000945	0.920735	1.002994
3.558380	-5.325490	1.001657	0.002281	3.240170	1.001660
5.325490	-3.558380	0.999768	0.002281	5.015389	0.999770
6.281840	-1.249530	0.998432	0.000945	5.976128	0.998432
20.000100	0.000000	0.999484	-0.000000	19.687661	0.999484
18.477700	7.653700	0.999786	-0.000729	18.163579	0.999787
14.142200	14.142200	1.000515	-0.001031	13.823288	1.000516
7.653700	18.477700	1.001245	-0.000729	7.327618	1.001245
-0.000001	20.000100	1.001547	0.000000	-0.334540	1.001547
-7.653700	18.477700	1.001245	0.000729	-7.996696	1.001245
-14.142200	14.142200	1.000515	0.001031	-14.492366	1.000516
-18.477700	7.653690	0.999786	0.000729	-18.832657	0.999787
-20.000100	-0.000002	0.999484	-0.000000	-20.356739	0.999484
-18.477700	-7.653700	0.999786	-0.000729	-18.832657	0.999787
-14.142200	-14.142200	1.000515	-0.001031	-14.492366	1.000516
-7.653690	-18.477700	1.001245	-0.000729	-7.996686	1.001245
0.000003	-20.000100	1.001547	0.000000	-0.334536	1.001547
7.653700	-18.477700	1.001245	0.000729	7.327618	1.001245
14.142200	-14.142200	1.000515	0.001031	13.823288	1.000516
18.477700	-7.653690	0.999786	0.000729	18.163579	0.999787
1	17	2
1	32	17
2	18	3
2	17	18
3	19	4
3	18	19
4	20	5
4	19	20
5	21	6
5	20	21
6	22	7
6	21	22
7	23	8
7	22	23
8	24	9
8	23	24
9	25	10
9	24	25
10	26	11
10	25	26
11	27	12
11	26	27
12	28	13
12	27	28
13	29	14
13	28	29
14	30	15
14	29	30
15	31	16
15	30	31
16	32	1
16	31	32
17	33	34
17	32	33
18	34	35
18	17	34
19	35	36
19	18	35
20	36	37
20	19	36
21	37	38
21	20	37
22	38	39
22	21	38
23	39	40
23	22	39
24	40	41
24	23	40
25	41	42
25	24	41
26	42	43
26	25	42
27	43	44
27	26	43
28	44	45
28	27	44
29	45	46
29	28	45
30	46	47
30	29	46
31	47	48
31	30	47
32	48	33
32	31	48
33	49	34
33	64	49
34	50	35
34	49	50
35	51	36
35	50	51
36	52	37
36	51	52
37	53	38
37	52	53
38	54	39
38	53	54
39	55	40
39	54	55
40	56	41
40	55	56
41	57	42
41	56	57
42	58	43
42	57	58
43	59	44
43	58	59
44	60	45
44	59	60
45	61	46
45	60	61
46	62	47
46	61	62
47	63	48
47	62	63
48	64	33
48	63	64
49	65	66
49	64	65
50	66	67
50	49	66
51	67	68
51	50	67
52	68	69
52	51	68
53	69	70
53	52	69
54	70	71
54	53	70
55	71	72
55	54	71
56	72	73
56	55	72
57	73	74
57	56	73
58	74	75
58	57	74
59	75	76
59	58	75
60	76	77
60	59	76
61	77	78
61	60	77
62	78	79
62	61	78
63	79	80
63	62	79
64	80	65
64	63	80
